TITLE = "VELOCITY UV: SERAFIN"
VARIABLES = "X", "Y", "U", "V"
ZONE NODES=7216, ELEMENTS=13474, DATAPACKING=POINT, ZONETYPE=FETRIANGLE
473257.093750 4175928.500000 0.0974367 -1.84909
473258.750000 4175948.250000 -0.256959 -1.94832
473260.750000 4175908.750000 0.422119 -1.97276
473261.250000 4175968.250000 -0.241513 -2.0745
473263.718750 4175988.000000 -0.268954 -2.12596
473264.437500 4175889.250000 0.375381 -2.12596
473266.218750 4176007.750000 -0.269749 -2.1702
473268.125000 4175869.500000 0.41064 -2.18381
473268.687500 4176027.750000 -0.270774 -2.1899
473271.156250 4176047.500000 -0.278103 -2.2132
473271.812500 4175849.750000 0.418648 -2.24792
473273.656250 4176067.250000 -0.280822 -2.23151
473275.500000 4175830.250000 0.432918 -2.30207
473276.125000 4176087.250000 -0.27369 -2.24809
473278.781250 4175920.500000 0.194097 -1.98772
473277.343750 4175939.250000 -0.0601688 -1.975
473278.593750 4176107.000000 -0.297618 -2.26919
473279.187500 4175810.500000 0.43541 -2.3484
473278.781250 4175957.750000 -0.183519 -2.06578
473281.375000 4175901.250000 0.298963 -2.10216
473281.093750 4176127.000000 -0.231492 -2.31856
473282.406250 4176146.750000 -0.100014 -2.31301
473282.187500 4175977.000000 -0.208005 -2.11851
473282.875000 4175790.750000 0.447804 -2.39166
473282.906250 4176162.750000 -0.0685729 -2.25678
473283.406250 4176178.750000 -0.0732226 -2.22125
473283.906250 4176194.750000 -0.0689149 -2.19468
473284.500000 4175882.500000 0.330291 -2.16515
473284.406250 4176210.750000 -0.0679608 -2.16698
473284.906250 4176226.750000 -0.0623792 -2.13949
473284.187500 4175997.000000 -0.243026 -2.16107
473285.406250 4176242.750000 -0.0671255 -2.11439
473285.906250 4176258.750000 -0.0650233 -2.07991
473286.406250 4176274.750000 -0.0659024 -2.04282
473286.562500 4175771.250000 0.456283 -2.43505
473286.187500 4176016.250000 -0.249415 -2.18682
473286.906250 4176290.750000 -0.0628839 -1.99882
473287.406250 4176306.750000 -0.0572247 -1.92885
473287.906250 4176322.750000 -0.0988432 -1.80074
473288.218750 4175863.500000 0.364137 -2.23215
473289.718750 4176036.250000 -0.259582 -2.20866
473290.125000 4176342.500000 -0.400028 -1.63636
473290.250000 4175751.500000 0.459287 -2.47428
473291.906250 4176056.750000 -0.262368 -2.2268
473292.062500 4175844.500000 0.376309 -2.28672
473292.531250 4176076.250000 -0.264702 -2.24679
473294.500000 4176094.750000 -0.268002 -2.25851
473293.937500 4175732.000000 0.478104 -2.51068
473295.781250 4175826.000000 0.392032 -2.33244
473299.062500 4175913.000000 0.161443 -2.10354
473296.781250 4176361.250000 -0.650227 -1.76683
473298.000000 4176113.500000 -0.250607 -2.28433
473297.000000 4175932.250000 0.0292502 -2.07003
473297.687500 4175712.250000 0.482884 -2.54393
473300.218750 4175808.500000 0.395923 -2.37546
473293.625000 4175948.250000 -0.0715662 -2.06664
473300.781250 4175894.250000 0.251394 -2.17182
473301.343750 4176133.000000 -0.18563 -2.30159
473302.875000 4176170.500000 -0.110066 -2.23863
473301.468750 4175692.500000 0.500038 -2.57891
473299.562500 4175964.750000 -0.14479 -2.12445
473302.906250 4176152.250000 -0.128772 -2.27293
473307.125000 4175795.250000 0.396126 -2.40707
473302.781250 4176188.250000 -0.103192 -2.20801
473303.437500 4176380.250000 -0.660444 -1.8901
473305.625000 4175987.000000 -0.189236 -2.17136
473302.375000 4176206.250000 -0.0999941 -2.17739
473303.968750 4175876.500000 0.287557 -2.2227
473303.562500 4176299.500000 -0.131011 -1.96151
473300.281250 4176227.500000 -0.094791 -2.14263
473305.250000 4175673.000000 0.502192 -2.61124
473302.781250 4176248.750000 -0.0995517 -2.1011
473303.187500 4176266.750000 -0.108314 -2.06527
473302.875000 4176283.250000 -0.108538 -2.02318
473301.187500 4176006.000000 -0.221992 -2.1853
473306.656250 4175780.250000 0.412415 -2.43693
473305.125000 4176317.500000 -0.17896 -1.87986
473307.031250 4176023.000000 -0.235105 -2.2128
473308.812500 4175858.250000 0.308083 -2.27498
473309.031250 4175653.250000 0.511231 -2.6428
473309.468750 4175761.750000 0.420976 -2.47061
473304.156250 4176338.750000 -0.389199 -1.77424
473310.093750 4176399.000000 -0.682239 -1.93296
473313.406250 4176045.250000 -0.246654 -2.22973
473312.218750 4175839.750000 0.332942 -2.32445
473310.906250 4176067.750000 -0.250625 -2.24551
473308.000000 4176084.250000 -0.255989 -2.25576
473312.812500 4175633.750000 0.515524 -2.66935
473312.531250 4175742.250000 0.434317 -2.50485
473315.468750 4175722.500000 0.447084 -2.54156
473315.593750 4175822.500000 0.348499 -2.36024
473318.593750 4175904.250000 0.16779 -2.18221
473313.718750 4176099.750000 -0.245543 -2.26718
473319.187500 4176357.250000 -0.558558 -1.86808
473316.593750 4175614.000000 0.519625 -2.68852
473316.750000 4176418.000000 -0.691303 -1.97346
473317.812500 4175924.750000 0.07152 -2.14961
473318.406250 4175703.000000 0.460892 -2.57236
473317.187500 4175888.000000 0.225765 -2.215
473315.406250 4175947.750000 -0.0556932 -2.13896
473320.781250 4175806.500000 0.35437 -2.40197
473318.718750 4176118.750000 -0.220272 -2.27732
473320.343750 4175594.500000 0.504239 -2.68633
473323.000000 4176161.000000 -0.154099 -2.24607
473324.937500 4176139.750000 -0.185612 -2.27084
473321.781250 4175970.250000 -0.138171 -2.16833
473325.156250 4176379.500000 -0.606064 -1.92101
473321.312500 4175683.750000 0.470848 -2.60732
473322.281250 4176180.000000 -0.140755 -2.21646
473325.125000 4175790.500000 0.36111 -2.43515
473323.406250 4176436.750000 -0.714975 -2.00818
473321.781250 4176198.750000 -0.135427 -2.19039
473327.531250 4175987.500000 -0.16813 -2.19753
473317.093750 4176291.500000 -0.166499 -2.00701
473324.375000 4175873.000000 0.249518 -2.26448
473324.125000 4175574.750000 0.555663 -2.6344
473321.093750 4176218.250000 -0.129596 -2.15949
473320.906250 4176238.250000 -0.133421 -2.1231
473324.500000 4175664.750000 0.481863 -2.6371
473321.031250 4176258.000000 -0.146254 -2.08984
473320.093750 4176276.500000 -0.155469 -2.04357
473322.937500 4176006.250000 -0.204648 -2.20894
473328.843750 4175772.500000 0.373646 -2.47037
473321.937500 4176307.250000 -0.22291 -1.95272
473328.250000 4175646.000000 0.489757 -2.66494
473328.781250 4176028.500000 -0.225223 -2.22784
473325.812500 4176330.500000 -0.354346 -1.89057
473331.968750 4175852.500000 0.273484 -2.31801
473331.812500 4176394.000000 -0.641346 -1.96346
473329.000000 4175555.500000 0.796017 -2.60221
473329.062500 4175834.250000 0.306701 -2.34825
473331.968750 4175753.000000 0.389376 -2.50681
473330.062500 4176455.500000 -0.715262 -2.04924
473334.437500 4176044.500000 -0.235207 -2.24043
473332.343750 4175627.000000 0.50122 -2.68889
473331.125000 4176061.000000 -0.24345 -2.25106
473328.437500 4176082.750000 -0.242923 -2.26041
473334.062500 4175732.750000 0.408843 -2.54031
473329.125000 4176407.000000 -0.66567 -1.97786
473338.125000 4176347.000000 -0.4737 -1.91372
473335.593750 4175536.500000 0.969325 -2.69975
473335.500000 4175819.750000 0.311401 -2.39154
473338.562500 4175914.500000 0.085963 -2.20768
473334.531250 4176104.250000 -0.232222 -2.26676
473336.437500 4175607.750000 0.508983 -2.69473
473338.281250 4175936.000000 -0.00164577 -2.19006
473336.718750 4176474.500000 -0.728014 -2.06872
473336.218750 4175713.000000 0.426007 -2.57302
473339.750000 4175957.250000 -0.0793948 -2.1912
473338.156250 4175891.500000 0.162564 -2.24817
473341.031250 4175802.750000 0.32052 -2.42713
473339.781250 4176123.000000 -0.214969 -2.2704
473340.531250 4175588.250000 0.540582 -2.69069
473338.250000 4175693.750000 0.439206 -2.60376
473343.031250 4176152.750000 -0.183414 -2.24785
473345.750000 4176137.500000 -0.205998 -2.25748
473342.843750 4175977.250000 -0.13729 -2.21049
473340.750000 4176364.250000 -0.545303 -1.94821
473337.812500 4176421.000000 -0.673189 -2.0105
473342.187500 4175517.750000 0.979044 -2.83558
473341.906250 4176171.250000 -0.171405 -2.22685
473340.062500 4175675.250000 0.448766 -2.63541
473346.312500 4175784.750000 0.334073 -2.46531
473343.375000 4176493.250000 -0.743649 -2.09633
473344.406250 4175996.250000 -0.172192 -2.2225
473341.312500 4176190.000000 -0.163675 -2.20268
473346.250000 4175870.500000 0.201002 -2.3014
473337.062500 4176291.000000 -0.217786 -2.02103
473345.062500 4175569.250000 0.655498 -2.669
473340.781250 4176209.250000 -0.163176 -2.17323
473340.343750 4176229.000000 -0.166189 -2.14525
473339.968750 4176248.750000 -0.175337 -2.10812
473339.218750 4176269.000000 -0.189063 -2.07116
473345.937500 4176016.000000 -0.199707 -2.23413
473343.156250 4175657.750000 0.459495 -2.66241
473353.531250 4175764.750000 0.347474 -2.50512
473342.906250 4176313.250000 -0.295392 -1.97496
473348.843750 4176035.000000 -0.214614 -2.24755
473345.656250 4176382.500000 -0.588644 -1.97826
473348.562500 4176440.750000 -0.686965 -2.048
473353.125000 4175854.750000 0.223901 -2.34204
473349.250000 4176332.750000 -0.407195 -1.96067
473349.968750 4175836.500000 0.255314 -2.3752
473348.781250 4175498.750000 1.02776 -2.9227
473350.406250 4175550.500000 0.811247 -2.71344
473353.437500 4175743.000000 0.366121 -2.53966
473347.718750 4175639.500000 0.473722 -2.69139
473350.031250 4176512.250000 -0.72787 -2.11716
473349.968750 4176053.000000 -0.229881 -2.2531
473349.562500 4176071.750000 -0.236741 -2.26295
473351.187500 4176091.000000 -0.232054 -2.26842
473354.781250 4175723.250000 0.384294 -2.57569
473349.093750 4176402.500000 -0.625156 -2.00464
473349.281250 4176460.500000 -0.707476 -2.06825
473359.593750 4175905.250000 0.0913756 -2.26461
473352.218750 4175620.500000 0.490285 -2.71144
473355.562500 4176350.250000 -0.488024 -1.9725
473356.593750 4175816.250000 0.27287 -2.41741
473358.875000 4175925.750000 0.0240235 -2.24158
473355.375000 4175480.000000 1.04511 -3.01461
473356.437500 4175532.000000 0.884056 -2.81492
473355.281250 4176109.750000 -0.23101 -2.26581
473356.312500 4175703.250000 0.401867 -2.60776
473356.687500 4176531.000000 -0.798007 -2.16688
473359.312500 4175946.250000 -0.0478931 -2.23157
473356.500000 4175601.500000 0.520742 -2.71644
473361.906250 4175798.000000 0.288084 -2.45779
473360.843750 4175966.000000 -0.104261 -2.23142
473359.500000 4176127.250000 -0.221591 -2.26308
473357.218750 4175683.750000 0.416433 -2.63912
473362.562500 4175885.000000 0.1379 -2.29804
473359.843750 4176421.250000 -0.650444 -2.04143
473360.937500 4176477.500000 -0.709176 -2.09844
473360.781250 4175582.500000 0.588548 -2.72337
473361.125000 4176162.250000 -0.200232 -2.23788
473361.375000 4176144.250000 -0.210361 -2.25255
473360.812500 4176368.250000 -0.53643 -1.99194
473362.718750 4175985.500000 -0.148207 -2.2398
473361.968750 4175461.000000 1.1023 -3.12282
473360.718750 4176181.000000 -0.194123 -2.21545
473362.812500 4175513.500000 0.916903 -2.90833
473355.875000 4175667.750000 0.433504 -2.66032
473367.468750 4175780.750000 0.300622 -2.49365
473364.406250 4176005.000000 -0.180474 -2.2505
473360.312500 4176200.250000 -0.191541 -2.19333
473363.343750 4176550.000000 -0.639374 -2.2919
473359.718750 4176299.500000 -0.294771 -2.02983
473359.875000 4176219.750000 -0.19266 -2.16544
473359.375000 4176239.500000 -0.202206 -2.13624
473358.843750 4176259.250000 -0.218407 -2.1046
473358.375000 4176279.500000 -0.247957 -2.06578
473366.218750 4176024.250000 -0.200732 -2.25687
473367.218750 4175866.250000 0.170123 -2.33735
473370.281250 4175848.000000 0.200514 -2.37927
473374.062500 4175766.750000 0.30772 -2.52253
473362.468750 4175652.750000 0.44287 -2.68851
473365.500000 4175564.000000 0.679804 -2.75144
473362.437500 4176497.500000 -0.722207 -2.12741
473363.718750 4176318.500000 -0.361859 -2.00641
473369.437500 4176435.750000 -0.660285 -2.06886
473367.656250 4176043.250000 -0.220426 -2.26038
473367.343750 4176569.500000 -0.393917 -2.26307
473366.281250 4176386.500000 -0.584726 -2.01744
473369.250000 4176336.250000 -0.428761 -1.99933
473368.562500 4175442.250000 1.07096 -3.27439
473369.312500 4175495.000000 0.952563 -3.00173
473372.656250 4175751.750000 0.322029 -2.54632
473367.906250 4175633.500000 0.458194 -2.71563
473368.125000 4176062.000000 -0.231305 -2.26597
473368.437500 4176080.250000 -0.236821 -2.26785
473370.781250 4176589.250000 -0.384843 -2.14556
473373.312500 4175829.250000 0.227279 -2.41115
473378.875000 4175916.500000 0.0241803 -2.28142
473374.843750 4176513.750000 -0.718866 -2.15163
473373.531250 4175733.000000 0.343877 -2.58115
473370.156250 4176454.750000 -0.673018 -2.0877
473370.843750 4175545.750000 0.764197 -2.81433
473377.781250 4175810.750000 0.245705 -2.45058
473370.906250 4176097.500000 -0.235764 -2.26603
473373.125000 4176404.750000 -0.610377 -2.04334
473378.625000 4175936.000000 -0.0246064 -2.26889
473372.468750 4175614.250000 0.487886 -2.7309
473374.218750 4176608.750000 -0.3618 -2.08173
473374.312500 4175423.000000 0.964336 -3.37485
473375.250000 4176353.750000 -0.49044 -2.01499
473375.906250 4175476.500000 0.989006 -3.09754
473379.468750 4175955.500000 -0.0729053 -2.26074
473375.062500 4175713.250000 0.357378 -2.61054
473375.718750 4176115.000000 -0.228785 -2.2651
473382.281250 4175793.000000 0.262311 -2.48512
473376.562500 4175595.000000 0.534192 -2.75719
473377.625000 4176628.500000 -0.340051 -1.9947
473380.562500 4175897.250000 0.0751264 -2.31089
473379.843750 4176152.500000 -0.218153 -2.24354
473379.656250 4176536.000000 -0.689876 -2.21833
473379.875000 4176171.500000 -0.215121 -2.22827
473380.968750 4175974.750000 -0.1218 -2.26165
473379.031250 4176133.750000 -0.225621 -2.25809
473380.593750 4175576.750000 0.603012 -2.78447
473378.718750 4175407.500000 0.973225 -3.4115
473376.843750 4175527.750000 0.819583 -2.9005
473381.625000 4176471.000000 -0.682359 -2.11612
473376.406250 4175692.750000 0.382605 -2.64496
473386.750000 4175776.500000 0.273939 -2.51692
473379.718750 4176190.750000 -0.213875 -2.2046
473381.093750 4176422.250000 -0.62777 -2.0687
473382.750000 4175994.000000 -0.159108 -2.26424
473381.281250 4176371.500000 -0.534503 -2.03311
473381.062500 4176648.250000 -0.341032 -1.90519
473384.468750 4176013.500000 -0.185702 -2.26686
473378.656250 4176306.500000 -0.339086 -2.04795
473382.468750 4175458.000000 1.0044 -3.20602
473379.406250 4176210.250000 -0.217325 -2.18191
473376.406250 4175669.750000 0.407609 -2.67801
473383.687500 4175878.500000 0.117035 -2.34184
473384.250000 4176556.250000 -0.542565 -2.24657
473378.937500 4176229.750000 -0.225914 -2.15645
473387.312500 4175860.000000 0.147812 -2.37468
473378.343750 4176249.750000 -0.240693 -2.1291
473377.562500 4176288.750000 -0.294795 -2.06949
473385.937500 4176033.000000 -0.207761 -2.27024
473383.093750 4175392.250000 0.990817 -3.46745
473377.718750 4176269.500000 -0.261254 -2.09813
473389.812500 4175760.250000 0.286694 -2.54936
473382.593750 4176323.000000 -0.396979 -2.03864
473384.500000 4176668.000000 -0.297792 -1.77292
473382.968750 4176490.500000 -0.687422 -2.13411
473385.187500 4175559.000000 0.675582 -2.82907
473383.812500 4175647.250000 0.425517 -2.71719
473386.750000 4176052.500000 -0.223457 -2.27219
473383.250000 4175509.750000 0.851983 -2.98529
473388.031250 4176576.250000 -0.457018 -2.17482
473387.500000 4176439.750000 -0.64965 -2.09451
473387.500000 4175376.750000 1.00928 -3.52987
473387.687500 4176389.500000 -0.566722 -2.05303
473386.437500 4176071.750000 -0.23373 -2.27287
473387.906250 4176687.750000 -0.359255 -1.53984
473388.687500 4175439.500000 0.955584 -3.32945
473391.656250 4175742.750000 0.304876 -2.582
473390.812500 4175841.500000 0.174283 -2.41187
473384.250000 4176087.250000 -0.234861 -2.27314
473388.781250 4175627.000000 0.44645 -2.74562
473393.625000 4175723.750000 0.31974 -2.61263
473391.406250 4176596.250000 -0.446309 -2.1053
473394.875000 4176505.750000 -0.68743 -2.15563
473394.437500 4175822.750000 0.198002 -2.44643
473390.750000 4175541.500000 0.729808 -2.89279
473391.875000 4175361.500000 1.00364 -3.59425
473389.812500 4175491.500000 0.887795 -3.07093
473390.593750 4176101.500000 -0.236129 -2.26911
473393.843750 4176457.500000 -0.658469 -2.11386
473389.000000 4176339.250000 -0.450004 -2.03743
473397.375000 4175926.750000 -0.015811 -2.30303
473395.687500 4175703.500000 0.34359 -2.64516
473394.750000 4176407.250000 -0.599991 -2.07706
473394.218750 4175422.000000 0.927239 -3.39357
473394.593750 4176616.000000 -0.430501 -2.02611
473392.781250 4175607.250000 0.482838 -2.77341
473398.125000 4175908.500000 0.0308422 -2.3211
473394.750000 4176706.000000 -0.770929 -1.33852
473398.156250 4175804.500000 0.216542 -2.4836
473397.812500 4175945.250000 -0.0616664 -2.29321
473396.281250 4175346.000000 1.09692 -3.70546
473398.937500 4176120.500000 -0.241276 -2.26463
473396.218750 4175588.500000 0.538215 -2.80215
473398.843750 4176161.500000 -0.23817 -2.23555
473397.218750 4176522.750000 -0.666438 -2.18606
473398.687500 4176142.000000 -0.238912 -2.25079
473398.968750 4176180.750000 -0.239097 -2.21744
473397.687500 4176635.750000 -0.431307 -1.93649
473399.125000 4175964.000000 -0.10684 -2.28269
473397.031250 4175524.000000 0.76756 -2.97062
473401.687500 4175787.250000 0.232469 -2.51682
473399.125000 4175405.250000 0.927109 -3.45787
473398.906250 4176200.250000 -0.240995 -2.19565
473399.375000 4175571.000000 0.592397 -2.84006
473400.437500 4175890.250000 0.0676406 -2.34441
473397.781250 4175682.500000 0.365442 -2.67833
473395.625000 4176356.750000 -0.492565 -2.04937
473403.968750 4175872.250000 0.0964709 -2.37576
473400.125000 4176475.500000 -0.668146 -2.13254
473396.500000 4175473.250000 0.905307 -3.1723
473401.312500 4175661.000000 0.383115 -2.71409
473401.843750 4176425.000000 -0.615393 -2.09917
473398.562500 4176220.000000 -0.243654 -2.17413
473400.968750 4175983.000000 -0.144103 -2.2816
473397.968750 4176240.000000 -0.258102 -2.15179
473400.906250 4176655.250000 -0.427573 -1.8331
473393.437500 4176312.000000 -0.375716 -2.0597
473402.875000 4176002.500000 -0.173741 -2.28178
473405.187500 4175770.500000 0.247567 -2.54582
473394.781250 4176297.500000 -0.343558 -2.07676
473401.562500 4176542.500000 -0.618833 -2.20232
473397.125000 4176259.750000 -0.279999 -2.12434
473396.031250 4176279.250000 -0.308127 -2.10071
473401.781250 4175326.750000 0.909777 -3.90443
473403.687500 4175388.750000 0.937693 -3.51318
473404.593750 4176022.000000 -0.197948 -2.28309
473405.906250 4175639.750000 0.404051 -2.74929
473404.406250 4175311.000000 0.59112 -3.90548
473404.468750 4176674.500000 -0.473391 -1.67959
473403.593750 4175506.250000 0.79188 -3.0546
473406.093750 4176492.750000 -0.671733 -2.15256
473404.062500 4175554.500000 0.645756 -2.89023
473405.875000 4176042.000000 -0.217737 -2.28293
473407.875000 4175853.750000 0.127668 -2.41174
473405.562500 4176563.000000 -0.558754 -2.18027
473402.000000 4176374.500000 -0.536129 -2.06701
473408.625000 4175753.250000 0.2633 -2.57741
473403.125000 4175455.250000 0.899512 -3.26715
473406.593750 4176722.000000 -1.04495 -1.36402
473408.593750 4176442.750000 -0.632819 -2.11788
473407.031250 4175295.250000 0.666457 -3.82625
473406.312500 4176062.500000 -0.232219 -2.28078
473408.968750 4176693.000000 -0.677324 -1.49654
473411.625000 4175734.500000 0.278944 -2.6105
473404.750000 4176085.000000 -0.239635 -2.27641
473411.625000 4175834.750000 0.150806 -2.4442
473409.812500 4175619.500000 0.435972 -2.78301
473408.031250 4175372.500000 0.951003 -3.59222
473401.500000 4176324.500000 -0.410444 -2.06498
473409.656250 4175279.500000 0.625759 -3.84841
473408.937500 4176583.250000 -0.518145 -2.12188
473413.187500 4176509.500000 -0.665947 -2.17281
473414.250000 4175714.750000 0.300262 -2.6444
473409.406250 4175437.000000 0.881388 -3.36201
473410.343750 4175488.250000 0.815756 -3.14234
473410.500000 4175538.000000 0.67685 -2.9599
473408.687500 4176392.000000 -0.563543 -2.08481
473415.031250 4175816.000000 0.174551 -2.47941
473408.968750 4176103.750000 -0.243127 -2.27071
473412.281250 4175263.750000 0.635232 -3.80092
473416.281250 4175901.000000 0.0181631 -2.35543
473415.312500 4175918.000000 -0.0158742 -2.33132
473411.875000 4176603.500000 -0.507846 -2.05306
473415.093750 4176461.000000 -0.645052 -2.13962
473412.843750 4175599.750000 0.486556 -2.81979
473412.312500 4175356.000000 0.963769 -3.66129
473415.468750 4175935.500000 -0.052233 -2.31713
473412.875000 4176708.500000 -0.912855 -1.42191
473414.906250 4175248.000000 0.631712 -3.80494
473409.750000 4176341.500000 -0.455446 -2.07368
473417.625000 4175797.750000 0.195166 -2.51052
473421.468750 4176115.000000 -0.247813 -2.27239
473415.093750 4175419.250000 0.865461 -3.43115
473414.625000 4176623.250000 -0.508088 -1.97885
473416.687500 4175953.500000 -0.0888069 -2.30918
473417.531250 4176151.250000 -0.249908 -2.24611
473415.062500 4175581.000000 0.529452 -2.86005
473416.906250 4175694.500000 0.322112 -2.68136
473419.156250 4176528.250000 -0.643682 -2.17838
473417.906250 4176132.500000 -0.251566 -2.25684
473418.031250 4176170.250000 -0.253347 -2.23095
473417.343750 4175470.500000 0.824829 -3.22632
473417.531250 4175232.250000 0.629955 -3.7819
473420.031250 4175673.500000 0.344818 -2.71373
473417.218750 4175520.500000 0.712733 -3.03499
473415.968750 4176409.750000 -0.584992 -2.10399
473419.906250 4175884.250000 0.0524227 -2.37817
473418.406250 4176189.750000 -0.255519 -2.21271
473418.406250 4176738.250000 -1.0653 -1.48945
473415.218750 4175565.750000 0.585864 -2.89564
473420.031250 4175781.000000 0.214878 -2.54212
473421.093750 4176479.500000 -0.653463 -2.15291
473418.843750 4175971.750000 -0.124717 -2.30528
473417.375000 4176642.750000 -0.525896 -1.88715
473420.031250 4175401.750000 0.876915 -3.50097
473416.718750 4175338.750000 0.931065 -3.78938
473418.343750 4176209.750000 -0.262036 -2.19287
473421.156250 4175990.750000 -0.157785 -2.30282
473420.156250 4175216.250000 0.619933 -3.76487
473417.812500 4176230.000000 -0.275827 -2.17165
473424.718750 4175866.250000 0.0754729 -2.41054
473409.593750 4176308.250000 -0.375069 -2.09023
473423.937500 4175652.750000 0.358359 -2.75681
473413.375000 4176289.750000 -0.34097 -2.10347
473416.937500 4176250.000000 -0.290691 -2.14875
473423.531250 4176549.250000 -0.606235 -2.1714
473415.625000 4176270.250000 -0.314031 -2.12661
473416.437500 4176359.750000 -0.49574 -2.08372
473423.250000 4176010.500000 -0.185385 -2.30105
473420.406250 4176661.750000 -0.572121 -1.77272
473422.812500 4175200.500000 0.635413 -3.72107
473428.750000 4175847.000000 0.103779 -2.44359
473420.593750 4175321.250000 0.747806 -3.87356
473424.312500 4175764.500000 0.226836 -2.57474
473425.093750 4176030.500000 -0.20882 -2.29962
473423.875000 4175503.000000 0.733217 -3.11502
473424.343750 4176496.000000 -0.651695 -2.16549
473423.250000 4175552.250000 0.606546 -2.94866
473425.437500 4175184.750000 0.608178 -3.63534
473423.250000 4176427.750000 -0.607878 -2.12544
473427.000000 4176570.250000 -0.579156 -2.13625
473424.375000 4175384.500000 0.878993 -3.56893
473424.343750 4175452.500000 0.818348 -3.31315
473429.156250 4175746.250000 0.237687 -2.60768
473424.187500 4176680.750000 -0.69186 -1.62975
473432.906250 4175827.500000 0.129207 -2.47875
473423.500000 4175303.000000 0.674068 -3.8337
473424.593750 4176720.500000 -1.01435 -1.48896
473427.843750 4175631.750000 0.389635 -2.79159
473426.531250 4176051.000000 -0.226717 -2.29618
473427.500000 4176072.750000 -0.240634 -2.29034
473422.343750 4176377.500000 -0.529673 -2.09559
473424.562500 4176323.500000 -0.420701 -2.09602
473429.187500 4175165.250000 0.868555 -3.51314
473432.437500 4175726.250000 0.260868 -2.64465
473424.781250 4175281.750000 0.669046 -3.82692
473429.718750 4176591.000000 -0.568347 -2.08197
473435.312500 4175808.000000 0.150986 -2.51329
473430.250000 4176754.250000 -1.11208 -1.49225
473430.062500 4176446.000000 -0.622857 -2.14159
473437.437500 4176511.250000 -0.64823 -2.17586
473430.968750 4175434.000000 0.811466 -3.40385
473431.000000 4175485.500000 0.741424 -3.19956
473429.031250 4176095.750000 -0.251032 -2.28233
473430.812500 4175534.750000 0.629364 -3.01728
473432.156250 4175909.500000 -0.0121627 -2.36307
473431.656250 4175895.000000 0.0177243 -2.37709
473428.437500 4175367.500000 0.883774 -3.6401
473430.250000 4175260.750000 0.666853 -3.80725
473432.031250 4176611.250000 -0.573963 -2.01246
473430.750000 4175611.000000 0.424012 -2.83016
473435.656250 4175790.000000 0.170484 -2.54097
473429.562500 4176701.000000 -0.87761 -1.54204
473432.500000 4175926.500000 -0.0489834 -2.34717
473435.312500 4175706.000000 0.278554 -2.67912
473431.343750 4176344.500000 -0.467025 -2.10111
473432.500000 4175242.500000 0.664887 -3.79001
473434.875000 4175146.000000 1.07947 -3.5443
473429.375000 4176394.250000 -0.556106 -2.1129
473438.718750 4175468.000000 0.748661 -3.28201
473438.156250 4176111.250000 -0.265689 -2.28064
473431.687500 4175227.500000 0.65376 -3.77742
473432.406250 4175591.000000 0.471201 -2.87054
473438.312500 4175685.750000 0.293209 -2.71623
473435.125000 4176141.500000 -0.268121 -2.25857
473436.531250 4176159.250000 -0.266212 -2.2432
473433.125000 4175943.500000 -0.082809 -2.33364
473435.718750 4176125.250000 -0.261858 -2.26904
473436.687500 4175415.500000 0.810293 -3.47671
473434.156250 4176630.750000 -0.593811 -1.93106
473442.093750 4176534.750000 -0.640772 -2.17089
473432.531250 4175350.250000 0.863552 -3.73179
473435.718750 4175775.250000 0.192666 -2.57007
473437.812500 4176178.750000 -0.269565 -2.22859
473436.031250 4176260.500000 -0.323599 -2.15317
473442.312500 4175880.250000 0.025695 -2.41158
473434.312500 4175570.000000 0.517339 -2.92302
473436.937500 4176465.000000 -0.637822 -2.15853
473436.875000 4176735.750000 -1.06896 -1.51203
473437.437500 4175517.000000 0.654676 -3.09526
473429.906250 4176302.000000 -0.379952 -2.11569
473434.187500 4176281.750000 -0.349124 -2.13203
473435.781250 4175960.500000 -0.113083 -2.32814
473438.312500 4176199.000000 -0.281434 -2.20838
473441.937500 4175665.250000 0.314821 -2.75163
473437.062500 4176240.000000 -0.30154 -2.17332
473439.250000 4175978.750000 -0.144473 -2.32499
473437.906250 4176219.500000 -0.290726 -2.19219
473436.375000 4176650.000000 -0.634705 -1.83893
473441.156250 4175397.000000 0.817391 -3.55092
473445.500000 4175859.250000 0.0620924 -2.44214
473440.562500 4175126.750000 1.06153 -3.6048
473437.531250 4175214.500000 0.688817 -3.73895
473449.843750 4175840.000000 0.0833568 -2.47647
473441.687500 4175998.500000 -0.176948 -2.31873
473436.687500 4175332.750000 0.801208 -3.80012
473445.812500 4176556.750000 -0.630869 -2.14583
473437.437500 4176363.750000 -0.501326 -2.11245
473438.000000 4176411.750000 -0.575457 -2.13258
473442.062500 4176770.500000 -1.08676 -1.51224
473438.968750 4176668.250000 -0.708708 -1.73864
473447.156250 4175760.500000 0.191926 -2.60173
473444.031250 4176018.250000 -0.202246 -2.3144
473443.718750 4175500.000000 0.677202 -3.16561
473450.750000 4175738.250000 0.214328 -2.64105
473446.531250 4175644.250000 0.338439 -2.79263
473443.937500 4176487.000000 -0.648321 -2.17072
473443.156250 4176717.500000 -1.01359 -1.54956
473444.593750 4175550.000000 0.552229 -2.99967
473442.031250 4175197.500000 0.709145 -3.70275
473440.531250 4175314.500000 0.74322 -3.82402
473448.343750 4176578.250000 -0.627856 -2.10191
473446.156250 4176038.750000 -0.22296 -2.31072
473444.875000 4175379.250000 0.827657 -3.61688
473446.500000 4175449.500000 0.743389 -3.36471
473446.250000 4175107.750000 1.07751 -3.60944
473442.718750 4176685.500000 -0.824876 -1.65224
473448.156250 4176059.750000 -0.242847 -2.30392
473443.375000 4176313.500000 -0.405083 -2.12238
473444.968750 4176430.750000 -0.598504 -2.15095
473440.187500 4176380.250000 -0.533033 -2.12141
473446.187500 4175179.750000 0.789265 -3.61851
473443.718750 4175295.000000 0.700567 -3.8256
473453.593750 4175717.500000 0.23607 -2.68033
473450.125000 4175622.500000 0.37286 -2.83578
473450.125000 4176599.250000 -0.634011 -2.04081
473449.406250 4175917.250000 -0.0518633 -2.37488
473449.125000 4176751.000000 -1.10513 -1.52176
473450.187500 4176081.500000 -0.255343 -2.29586
473447.687500 4175899.500000 -0.0186662 -2.39045
473458.218750 4176502.250000 -0.646916 -2.1841
473451.812500 4175531.000000 0.576197 -3.07197
473451.875000 4175483.500000 0.67172 -3.24906
473453.843750 4175430.250000 0.741968 -3.45014
473451.906250 4175088.500000 1.05065 -3.58924
473447.000000 4175274.500000 0.683294 -3.81541
473448.468750 4175361.750000 0.828831 -3.68887
473451.593750 4176619.250000 -0.655379 -1.97205
473449.562500 4175934.750000 -0.076239 -2.35853
473451.437500 4175600.750000 0.412568 -2.88195
473459.375000 4175677.250000 0.274191 -2.74913
473446.468750 4176330.000000 -0.43491 -2.12402
473450.843750 4175161.000000 0.965961 -3.5794
473448.562500 4175949.750000 -0.096119 -2.34672
473453.906250 4176786.500000 -1.13623 -1.39065
473456.343750 4175697.250000 0.253918 -2.71349
473452.156250 4176101.500000 -0.264643 -2.28376
473449.968750 4175254.250000 0.698259 -3.80694
473451.531250 4176449.000000 -0.613211 -2.16292
473449.187500 4176132.500000 -0.268128 -2.26558
473451.031250 4176394.000000 -0.545469 -2.13914
473453.718750 4176147.000000 -0.277914 -2.2554
473452.281250 4176118.500000 -0.268564 -2.27708
473461.125000 4176520.750000 -0.651817 -2.17578
473451.406250 4175780.000000 0.161614 -2.57277
473450.093750 4175583.000000 0.456049 -2.92449
473450.718750 4175232.250000 0.715351 -3.78312
473455.656250 4176732.250000 -1.07531 -1.55671
473459.031250 4175410.250000 0.752952 -3.53019
473456.843750 4176166.500000 -0.286548 -2.24196
473452.968750 4176638.750000 -0.694572 -1.89189
473456.468750 4176249.750000 -0.327018 -2.17383
473452.593750 4175344.500000 0.798042 -3.749
473453.781250 4175797.500000 0.134385 -2.54696
473450.343750 4176700.750000 -0.949006 -1.60954